#BIOSYM hessian 1
@Type: Hessian Update
@Units
 distance: 	A
 energy: 	Kcal/Mol
#header
@natom 5

#label
C1      H2      H3      H4      H5

#element
C  H  H  H  H 

#matrix
15
 0.000000000000E+00
 0.000000000000E+00 0.000000000000E+00
 0.000000000000E+00 0.000000000000E+00 0.000000000000E+00
 0.000000000000E+00 0.000000000000E+00 0.000000000000E+00 6.264648152276E+01
 0.000000000000E+00 0.000000000000E+00 0.000000000000E+00 6.264648152276E+01 6.264648152276E+01
 0.000000000000E+00 0.000000000000E+00 0.000000000000E+00 -6.264648152276E+01 -6.264648152276E+01 6.264648152276E+01
 0.000000000000E+00 0.000000000000E+00 0.000000000000E+00 -6.264648152276E+01 -6.264648152276E+01 6.264648152276E+01 6.264648152276E+01
 0.000000000000E+00 0.000000000000E+00 0.000000000000E+00 -6.264648152276E+01 -6.264648152276E+01 6.264648152276E+01 6.264648152276E+01 6.264648152276E+01
 0.000000000000E+00 0.000000000000E+00 0.000000000000E+00 -6.264648152276E+01 -6.264648152276E+01 6.264648152276E+01 6.264648152276E+01 6.264648152276E+01 6.264648152276E+01
 0.000000000000E+00 0.000000000000E+00 0.000000000000E+00 6.264648152276E+01 6.264648152276E+01 -6.264648152276E+01 -6.264648152276E+01 -6.264648152276E+01 -6.264648152276E+01 6.264648152276E+01
 0.000000000000E+00 0.000000000000E+00 0.000000000000E+00 -6.264648152276E+01 -6.264648152276E+01 6.264648152276E+01 6.264648152276E+01 6.264648152276E+01 6.264648152276E+01 -6.264648152276E+01 6.264648152276E+01
 0.000000000000E+00 0.000000000000E+00 0.000000000000E+00 6.264648152276E+01 6.264648152276E+01 -6.264648152276E+01 -6.264648152276E+01 -6.264648152276E+01 -6.264648152276E+01 6.264648152276E+01 -6.264648152276E+01 6.264648152276E+01
 0.000000000000E+00 0.000000000000E+00 0.000000000000E+00 -6.264648152276E+01 -6.264648152276E+01 6.264648152276E+01 6.264648152276E+01 6.264648152276E+01 6.264648152276E+01 -6.264648152276E+01 6.264648152276E+01 -6.264648152276E+01 6.264648152276E+01
 0.000000000000E+00 0.000000000000E+00 0.000000000000E+00 6.264648152276E+01 6.264648152276E+01 -6.264648152276E+01 -6.264648152276E+01 -6.264648152276E+01 -6.264648152276E+01 6.264648152276E+01 -6.264648152276E+01 6.264648152276E+01 -6.264648152276E+01 6.264648152276E+01
 0.000000000000E+00 0.000000000000E+00 0.000000000000E+00 6.264648152276E+01 6.264648152276E+01 -6.264648152276E+01 -6.264648152276E+01 -6.264648152276E+01 -6.264648152276E+01 6.264648152276E+01 -6.264648152276E+01 6.264648152276E+01 -6.264648152276E+01 6.264648152276E+01 6.264648152276E+01

