#BIOSYM hessian 1
@Type: Hessian Update
@Units
 distance: 	A
 energy: 	Kcal/Mol
#header
@natom 13

#label
M1      M2      C3      C4      C5      C6      C7      C8      C9      H10     H11     H12     H13

#element
Mo Mo C  C  C  C  C  C  C  H  H  H  H 

#matrix
39
 9.189746858120E+00
 4.108617383861E+00 6.248038974611E+00
 -7.276223003285E+00 -1.971277319100E+00 6.733643060684E+00
 6.465038036181E+00 9.920501826536E+00 -5.384258678012E-01 1.132744332309E+02
 -7.891898360284E+00 -1.340811923144E+01 6.407861505238E+00 1.196074779027E+01 5.621034887616E+01
 1.555701545974E+01 -8.762858393224E-01 -1.393079752219E+01 8.890708932672E+01 3.404697347100E+01 1.688548173014E+02
 3.190121895414E-01 -3.710001644775E+00 -1.999601900080E+00 -1.040691141019E+01 5.314654464750E+00 8.983381709809E+00 4.768094448198E+00
 -5.380858368965E-01 -1.389965959620E+00 -2.112259080206E-01 -5.107087301889E+00 1.445922613263E+00 2.162411160359E+00 1.782625638462E+00 8.332178884143E-01
 1.105670418988E+00 4.067875120924E+00 4.716059003709E-01 7.235456993832E+00 -7.754487720417E+00 -4.957101629431E+00 -3.572501819909E+00 -1.178857534099E+00 3.414187359934E+00
 -2.128797444508E+01 -1.000800892316E+01 1.674780703962E+01 -1.710796468740E+01 1.932883205291E+01 -3.335007870239E+01 1.424722604087E-01 1.759904063157E+00 -2.858386298206E+00 1.288564078167E+02
 2.516471776931E+00 -1.040691205584E+00 -4.934121084910E+00 1.201183261676E+00 -8.589844594436E+00 -2.102842035700E+00 1.152268521767E+00 -7.462978405910E-01 -2.400411521503E+00 2.133869184879E+02 6.491448529276E+02
 -4.941644626902E+00 -1.536770285396E+00 1.176728037442E+00 -6.710440469013E+00 -1.166238933233E+01 -2.164277918398E+01 -4.218955900885E-01 -4.207991543871E-01 -1.482930895897E+00 -1.536162918019E+02 -4.331783387106E+02 3.629549044953E+02
 -3.770543130141E+00 -1.304957262040E+00 3.084194915424E+00 -2.570655618523E+00 2.295467072286E+00 -6.714937011338E+00 -3.216421092730E-01 2.251175131617E-01 -1.503597399609E-01 8.808576521383E+00 -1.822933180555E+00 1.576534696185E+00 1.607752873024E+00
 -1.793713482802E+00 -5.176694369888E-02 1.517002942899E+00 -1.120663934241E+00 -8.439871995134E-01 -4.315137264215E+00 -4.993136020647E-01 5.738179484164E-02 3.710311006815E-01 4.189052259533E+00 -9.576580699572E-01 1.153192618112E+00 8.291312622359E-01 5.339355790802E-01
 3.122083472463E-01 -9.293885875645E-02 -2.729668921767E-01 1.767411763462E-01 4.937620988354E-01 9.518743646918E-01 1.489543912308E-01 -1.081305882533E-03 -1.438718308247E-01 -7.288933264768E-01 1.828937683826E-01 -2.729619157253E-01 -1.558355061694E-01 -1.179293344080E-01 2.837307543251E-02
 0.000000000000E+00 0.000000000000E+00 0.000000000000E+00 0.000000000000E+00 0.000000000000E+00 0.000000000000E+00 0.000000000000E+00 0.000000000000E+00 0.000000000000E+00 0.000000000000E+00 0.000000000000E+00 0.000000000000E+00 0.000000000000E+00 0.000000000000E+00 0.000000000000E+00 0.000000000000E+00
 0.000000000000E+00 0.000000000000E+00 0.000000000000E+00 0.000000000000E+00 0.000000000000E+00 0.000000000000E+00 0.000000000000E+00 0.000000000000E+00 0.000000000000E+00 0.000000000000E+00 0.000000000000E+00 0.000000000000E+00 0.000000000000E+00 0.000000000000E+00 0.000000000000E+00 0.000000000000E+00 0.000000000000E+00
 0.000000000000E+00 0.000000000000E+00 0.000000000000E+00 0.000000000000E+00 0.000000000000E+00 0.000000000000E+00 0.000000000000E+00 0.000000000000E+00 0.000000000000E+00 0.000000000000E+00 0.000000000000E+00 0.000000000000E+00 0.000000000000E+00 0.000000000000E+00 0.000000000000E+00 0.000000000000E+00 0.000000000000E+00 0.000000000000E+00
 1.279763824987E-02 -1.112361718628E-01 -8.391500996377E-02 -4.866239190205E-01 3.689423716872E-02 2.747795680193E-01 1.784626919663E-01 7.693635388591E-02 -1.104928965532E-01 1.502019445749E-02 3.462997631483E-02 1.119367370482E-02 -6.785025104952E-03 -6.498749114241E-03 1.717200513950E-03 0.000000000000E+00 0.000000000000E+00 0.000000000000E+00 7.986204537784E-03
 5.470093824993E-02 -4.754567092318E-01 -3.586778817034E-01 -2.079976353883E+00 1.576970179763E-01 1.174490158972E+00 7.628029877516E-01 3.288490158042E-01 -4.722797279781E-01 6.420080904612E-02 1.480188890331E-01 4.784511346249E-02 -2.900122913647E-02 -2.777759982421E-02 7.339829228044E-03 0.000000000000E+00 0.000000000000E+00 0.000000000000E+00 3.413542973658E-02 1.459050488612E-01
 -1.832389948280E-02 1.592700459466E-01 1.201510917602E-01 6.967572925535E-01 -5.282586366130E-02 -3.934345608154E-01 -2.555262436063E-01 -1.101589205487E-01 1.582058103591E-01 -2.150619732153E-02 -4.958385232456E-02 -1.602731283738E-02 9.714926737571E-03 9.305031382216E-03 -2.458720038422E-03 0.000000000000E+00 0.000000000000E+00 0.000000000000E+00 -1.143479807307E-02 -4.887575121930E-02 1.637255924929E-02
 -2.075661537202E+00 -1.446450152557E+00 1.427580368414E+00 -2.340253687818E+00 2.615416299875E+00 -2.893716230826E+00 3.750214021488E-01 2.378270618324E-01 -6.946209989473E-01 4.811008840383E+00 3.027698259298E-01 1.639998127076E+00 7.938800749860E-01 3.183016628541E-01 -4.476720467022E-02 0.000000000000E+00 0.000000000000E+00 0.000000000000E+00 1.127106676968E-02 4.817591459778E-02 -1.613812568531E-02 5.446374567773E-01
 2.472602568185E+00 6.579796314131E-01 -2.045279984685E+00 -1.996454899879E-01 -1.257116412412E+00 5.065870600560E+00 5.588979384088E-01 1.249588512376E-01 1.405007415018E-01 -5.373730848858E+00 -3.791547095086E-01 -2.687395398841E+00 -9.977570337434E-01 -4.818598197300E-01 8.516271926669E-02 0.000000000000E+00 0.000000000000E+00 0.000000000000E+00 3.067030656433E-02 1.310940747601E-01 -4.391432259755E-02 -5.323293860848E-01 9.736030680912E-01
 -1.922158925748E+00 -8.799963667578E-01 1.470709196419E+00 -8.783838425290E-01 1.620245315317E+00 -3.378063600374E+00 -8.655065923575E-02 4.411003248444E-02 -3.468939646679E-01 4.301069336526E+00 2.883532029783E-01 1.835267549267E+00 7.576281848029E-01 3.390621041470E-01 -5.519007092611E-02 0.000000000000E+00 0.000000000000E+00 0.000000000000E+00 -8.586099755645E-03 -3.669956154183E-02 1.229373934471E-02 4.541170134900E-01 -6.394125195524E-01 4.630062352356E-01
 -4.266783461601E+00 -5.821619927768E+00 1.327667341120E+00 -7.758129957224E+01 -4.277117308306E+00 -8.593134183573E+01 3.166316266432E+00 1.291127171462E+00 -3.326069135375E+00 8.653484214539E+00 3.605176795273E+00 1.093778067394E+01 1.327183170586E+00 4.037295125602E-01 -2.948772999261E-02 0.000000000000E+00 0.000000000000E+00 0.000000000000E+00 1.424247772847E-01 6.087661485188E-01 -2.039264786104E-01 1.669045387475E+00 -3.648260635521E-01 8.452685291058E-01 1.164547152380E+03
 4.525174611261E+00 7.645543341007E+00 -3.993483618268E+00 6.246129412306E+00 -4.859635737963E+01 -2.866836792809E+01 -4.682813192355E+00 -2.404013756250E+00 3.694300721247E+00 -1.580353714719E+01 1.037470932272E+01 2.372036094833E+01 -1.833060224019E+00 -4.675075239107E-02 -1.397219470833E-01 0.000000000000E+00 0.000000000000E+00 0.000000000000E+00 -1.514040672730E-01 -6.471463228592E-01 2.167831951357E-01 -1.183936202720E+00 -7.382415068930E-01 -1.694655678201E-01 -1.240362944069E+02 1.615515945741E+03
 -2.493250494277E+00 2.512521130692E+00 1.574762446842E+00 -9.366769768291E+01 -4.173512730592E+01 -1.144664364681E+02 -1.325112764540E+00 6.666015733288E-01 2.879472916632E+00 6.478435115256E+00 -3.262109362534E+00 5.602372766374E+00 1.595335095469E+00 1.791163823340E+00 -4.967050297377E-01 0.000000000000E+00 0.000000000000E+00 0.000000000000E+00 7.750274897452E-02 3.312699580251E-01 -1.109698957043E-01 1.295383874496E-01 1.503880148243E-01 -1.149035635256E-02 -3.550837352723E+02 -4.658216937759E+01 1.139137228306E+03
 -9.816289602842E-01 -4.357882821626E-01 2.273061957759E-01 -1.155639477594E+01 -4.402696740446E+00 4.076609059962E+00 2.176203767475E+00 1.592681461188E+00 -3.404479477942E-01 4.721786790732E+00 -4.156322886130E+00 -5.568542845251E+00 7.815813251443E-01 6.568350879871E-01 -1.653929283310E-01 0.000000000000E+00 0.000000000000E+00 0.000000000000E+00 1.367905950787E-01 5.846839665629E-01 -1.958593504110E-01 5.379441550591E-02 4.791117185781E-01 -1.845208839208E-01 -8.309209661267E+02 -1.999248378168E+02 3.119746065799E+02 8.104329160105E+02
 1.442233510057E+00 -4.343821671265E-01 -1.785974694882E+00 -1.006227886828E+01 8.522787081581E+00 7.244347553056E+00 2.738587474644E+00 1.242199322233E+00 -1.272817663035E+00 -1.646432181561E+00 -1.592659307518E+00 -5.812201772553E+00 -4.421155852988E-01 -2.491972674876E-01 5.033958960731E-02 0.000000000000E+00 0.000000000000E+00 0.000000000000E+00 1.130455430135E-01 4.831905033628E-01 -1.618607376387E-01 -3.149642869679E-01 6.202386304484E-01 -3.973840998834E-01 -1.915392678495E+02 -2.322277897791E+02 7.688598014203E+01 2.078030430212E+02 1.893742830427E+02
 -6.840497084768E-01 -7.327660561810E-01 7.703807603946E-01 -1.043891962350E+00 2.306684686439E+00 2.854073378299E+00 -7.689877015458E-01 -5.911140271384E-01 -2.483529905727E-01 4.560150506884E-01 1.194288822982E+00 2.660249515295E+00 7.462513233457E-02 -1.622118838526E-01 6.365726473032E-02 0.000000000000E+00 0.000000000000E+00 0.000000000000E+00 -5.800730624113E-02 -2.479405976937E-01 8.305595361248E-02 2.554052826015E-01 -4.380513287787E-01 2.942407410218E-01 2.446958121459E+02 6.389187891912E+01 -1.578284597411E+02 -3.041255520601E+02 -8.619776894183E+01 1.736436961708E+02
 4.019839558574E+00 2.575795017438E+00 -3.380924050207E+00 -6.287200135046E+00 -1.056618514305E+01 -5.403634551892E+00 2.069313519009E-01 2.708051552708E-02 9.509248409969E-01 -8.806657427334E+00 1.293241063135E+00 -1.908653067384E+00 -1.503440646977E+00 -4.905248526599E-01 4.512298666275E-02 0.000000000000E+00 0.000000000000E+00 0.000000000000E+00 3.421436228742E-02 1.462424302206E-01 -4.898876833225E-02 -1.003916912027E+00 1.172072114888E+00 -9.193933516842E-01 -1.486296417302E+02 1.610873682961E+02 1.812123625070E+02 -3.329716935806E+00 5.138038252419E+01 3.183196428837E+01 1.624368584171E+02
 -6.354071140753E-01 5.639268188938E-01 1.377625810799E+00 -6.377770630125E+00 -4.283397212628E-01 -6.000232770034E+00 -1.661480999615E+00 -4.896969849097E-01 1.374534926460E+00 2.097511691092E+00 -8.364100160957E-01 -4.353608303777E+00 3.485783998442E-01 2.444811581477E-01 -5.664611483102E-02 0.000000000000E+00 0.000000000000E+00 0.000000000000E+00 -5.349176482133E-02 -2.286398214452E-01 7.659051635981E-02 -6.411321742927E-03 1.627022066340E-01 -7.283308499222E-02 2.103852105289E+02 -5.769716933914E+02 -3.878512329997E+02 -2.518120318567E+00 3.519354783193E+01 2.276686697101E+01 -2.083721813232E+02 5.725383906801E+02
 -2.175331879090E-01 1.698916511948E+00 8.044177901166E-01 1.024422766089E+00 -8.376281102273E+00 -1.887106178381E+01 -1.553387616103E+00 -5.236576249679E-01 1.210205452670E+00 7.811549041581E-01 1.082750643702E+00 -1.667874141724E+00 2.370732177691E-01 2.705729311622E-01 -7.536611185944E-02 0.000000000000E+00 0.000000000000E+00 0.000000000000E+00 -6.235316266959E-02 -2.665160894754E-01 8.927843269862E-02 -1.372451642282E-01 -4.917660010596E-01 1.555866280204E-01 2.210316791442E+02 -4.112820596802E+02 -4.932153692783E+02 -2.856804546003E-01 -1.795836493290E+01 -1.091599471109E+01 -2.094385917375E+02 4.101111951156E+02 4.676284168844E+02
 -2.662582355481E+00 -7.720257263111E-01 2.340769335174E+00 -2.135239363203E+00 -6.294682569246E-01 -7.384855309211E+00 -7.657963348762E-01 -2.926230436539E-01 -2.470872162508E-01 5.182484393126E+00 -7.587004156415E-01 3.611264794700E+00 1.035383136133E+00 4.254207354543E-01 -6.202024208939E-02 0.000000000000E+00 0.000000000000E+00 0.000000000000E+00 -5.220388307496E-02 -2.231350291933E-01 7.474650301881E-02 5.733212266917E-01 -1.183187629262E+00 7.467229524174E-01 -1.125399428027E+02 1.647654312646E+02 -4.511429231568E+01 3.143917978135E+01 -6.073937402426E+01 2.982998938230E+01 -3.431224095488E+00 8.371795584794E+00 -1.047758191926E+01 8.713201175853E+01
 -1.598942415975E+00 2.704253243279E-01 1.455056513225E+00 -5.468580419608E+00 1.823169470401E+00 -5.445884255066E+00 1.577057732039E-01 8.650369234619E-01 1.134557068332E+00 6.189467459835E+00 -4.059426033634E+00 -6.543992741149E+00 1.036974231677E+00 8.785243409727E-01 -2.219308229672E-01 0.000000000000E+00 0.000000000000E+00 0.000000000000E+00 6.929261923571E-02 2.961774049229E-01 -9.921447731092E-02 9.498782226483E-02 5.075051408654E-01 -1.797925291368E-01 1.122572211550E+02 -7.685638077211E+02 3.945806270691E+02 -1.291065119951E+00 -9.310843702148E-01 -1.589366050853E+00 3.251679413861E+00 -2.971272452291E+01 2.644091657415E+01 -1.106420767976E+02 7.972193968144E+02
 -2.134379063335E+00 -2.222552134532E+00 1.452025067204E+00 -6.605723244696E-01 1.318404425137E+01 -9.886191795183E+00 3.527138600116E-01 -1.429841843400E-02 -1.209431787818E+00 4.129917792942E+00 1.121229732741E+00 3.542543243725E+00 6.550884469117E-01 7.349981906651E-02 2.987272445217E-02 0.000000000000E+00 0.000000000000E+00 0.000000000000E+00 -9.708679720850E-03 -4.149780447997E-02 1.390107048208E-02 7.184624463438E-01 -6.435408061434E-01 5.737345263002E-01 -2.683340222421E+01 4.175675745584E+02 -3.770075736176E+02 -8.589907664918E+00 2.554899234401E+01 -9.981298531939E+00 6.400719452200E+00 -4.068129633125E+01 5.340809899358E+01 2.894067941445E+01 -4.135399870633E+02 3.409662163805E+02
 1.503873960913E+01 7.005173862803E+00 -1.187623536419E+01 1.073307190229E+01 -1.378464610824E+01 2.387968851712E+01 1.618354762707E-01 -1.055503596238E+00 2.007913799180E+00 -1.139886444719E+02 -2.167547032266E+02 1.553906964349E+02 -6.181290571236E+00 -2.911755899743E+00 5.016528357293E-01 0.000000000000E+00 0.000000000000E+00 0.000000000000E+00 6.645296568435E-03 2.840398752841E-02 -9.514860787275E-03 -3.412147733690E+00 3.938121804864E+00 -3.105212253469E+00 -5.566972502637E+00 1.099177947292E+01 -3.783691904392E+00 -2.953545887110E+00 1.267140722812E+00 -4.633225434920E-01 6.293954193004E+00 -1.578232732413E+00 -9.019567899158E-01 -3.775391461010E+00 -4.056663721949E+00 -2.969611456208E+00 1.036437461504E+02
 -2.661753578512E+00 1.414468126446E+00 4.542493719407E+00 1.087440707222E+00 4.963839479309E+00 -2.285342851514E+00 -1.913933360178E+00 1.324081321153E-01 2.296054487885E+00 -2.141841777227E+02 -6.414654393620E+02 4.412740970192E+02 1.694556035589E+00 9.446747795602E-01 -1.892496213915E-01 0.000000000000E+00 0.000000000000E+00 0.000000000000E+00 -7.297371284827E-02 -3.119115013601E-01 1.044851364768E-01 -1.333872372814E-01 -3.217091549060E-01 8.381307475812E-02 -2.512105755680E+00 -3.340397794805E+00 2.512087334391E+00 1.612475908542E+00 -1.133520779783E-03 -2.005005132276E-01 -1.504970056447E+00 -3.554423760435E-02 -7.057063457025E-01 1.677943338037E+00 1.406807228488E+00 -3.521681474300E-01 2.169108854343E+02 6.366139378255E+02
 2.712668683437E+00 -1.259959494640E-01 -3.706589368670E-01 5.458944593531E+00 1.152153999640E+01 1.486510149949E+01 4.985143340567E-01 1.780701273057E-01 2.549056592456E-01 1.576807570871E+02 4.420578903968E+02 -3.526894921572E+02 -9.690623581667E-01 -9.295518883156E-01 2.457431419816E-01 0.000000000000E+00 0.000000000000E+00 0.000000000000E+00 -2.069523823531E-02 -8.845764559634E-02 2.963183188901E-02 -8.386139010181E-01 1.547438285505E+00 -1.013200623289E+00 -7.430245157941E+00 -1.825563022312E+01 -6.056832048718E+00 3.177382299602E+00 3.856713214018E+00 -1.395247809469E+00 6.590914517238E-01 3.309036264311E+00 1.449661845300E+00 -2.258335379579E+00 4.009010714950E+00 -1.901896273727E+00 -1.586704064145E+02 -4.470800632928E+02 3.465822838714E+02

