#BIOSYM hessian 1
@Type: Hessian Update
@Units
 distance: 	A
 energy: 	Kcal/Mol
#header
@natom 13

#label
M1      M2      C3      C4      C5      C6      C7      C8      C9      H10     H11     H12     H13

#element
Mo Mo C  C  C  C  C  C  C  H  H  H  H 

#matrix
39
 7.618276497566E+00
 2.939811388844E+00 4.758261474640E+00
 -3.334102967762E+00 -1.019302031176E+00 2.059330149123E+00
 7.618276497566E+00 2.939811388843E+00 -3.334102967762E+00 7.618276497566E+00
 2.939811388843E+00 4.758261474640E+00 -1.019302031176E+00 2.939811388843E+00 4.758261474640E+00
 -3.334102967762E+00 -1.019302031176E+00 2.059330149123E+00 -3.334102967762E+00 -1.019302031176E+00 2.059330149123E+00
 7.618276497567E+00 2.939811388844E+00 -3.334102967762E+00 7.618276497566E+00 2.939811388844E+00 -3.334102967762E+00 7.618276497567E+00
 2.939811388843E+00 4.758261474640E+00 -1.019302031176E+00 2.939811388843E+00 4.758261474640E+00 -1.019302031176E+00 2.939811388843E+00 4.758261474640E+00
 -3.334102967762E+00 -1.019302031176E+00 2.059330149123E+00 -3.334102967762E+00 -1.019302031176E+00 2.059330149123E+00 -3.334102967762E+00 -1.019302031176E+00 2.059330149123E+00
 7.618276497567E+00 2.939811388844E+00 -3.334102967762E+00 7.618276497566E+00 2.939811388844E+00 -3.334102967762E+00 7.618276497567E+00 2.939811388843E+00 -3.334102967762E+00 7.618276497567E+00
 2.939811388843E+00 4.758261474640E+00 -1.019302031176E+00 2.939811388843E+00 4.758261474640E+00 -1.019302031176E+00 2.939811388844E+00 4.758261474640E+00 -1.019302031176E+00 2.939811388844E+00 4.758261474640E+00
 -3.334102967763E+00 -1.019302031177E+00 2.059330149123E+00 -3.334102967762E+00 -1.019302031176E+00 2.059330149123E+00 -3.334102967763E+00 -1.019302031176E+00 2.059330149123E+00 -3.334102967763E+00 -1.019302031176E+00 2.059330149124E+00
 7.618276497566E+00 2.939811388844E+00 -3.334102967762E+00 7.618276497566E+00 2.939811388843E+00 -3.334102967762E+00 7.618276497566E+00 2.939811388843E+00 -3.334102967762E+00 7.618276497566E+00 2.939811388843E+00 -3.334102967762E+00 7.618276497566E+00
 2.939811388844E+00 4.758261474640E+00 -1.019302031176E+00 2.939811388843E+00 4.758261474640E+00 -1.019302031176E+00 2.939811388844E+00 4.758261474640E+00 -1.019302031176E+00 2.939811388844E+00 4.758261474640E+00 -1.019302031177E+00 2.939811388843E+00 4.758261474640E+00
 -3.334102967762E+00 -1.019302031176E+00 2.059330149123E+00 -3.334102967762E+00 -1.019302031176E+00 2.059330149123E+00 -3.334102967762E+00 -1.019302031176E+00 2.059330149123E+00 -3.334102967762E+00 -1.019302031176E+00 2.059330149123E+00 -3.334102967762E+00 -1.019302031176E+00 2.059330149123E+00
 7.618276497566E+00 2.939811388844E+00 -3.334102967762E+00 7.618276497566E+00 2.939811388843E+00 -3.334102967762E+00 7.618276497567E+00 2.939811388843E+00 -3.334102967762E+00 7.618276497567E+00 2.939811388843E+00 -3.334102967763E+00 7.618276497566E+00 2.939811388844E+00 -3.334102967762E+00 7.618276497566E+00
 2.939811388844E+00 4.758261474640E+00 -1.019302031176E+00 2.939811388843E+00 4.758261474640E+00 -1.019302031176E+00 2.939811388844E+00 4.758261474640E+00 -1.019302031176E+00 2.939811388844E+00 4.758261474640E+00 -1.019302031177E+00 2.939811388843E+00 4.758261474640E+00 -1.019302031176E+00 2.939811388844E+00 4.758261474640E+00
 -3.334102967762E+00 -1.019302031176E+00 2.059330149123E+00 -3.334102967762E+00 -1.019302031176E+00 2.059330149123E+00 -3.334102967762E+00 -1.019302031176E+00 2.059330149123E+00 -3.334102967762E+00 -1.019302031176E+00 2.059330149123E+00 -3.334102967762E+00 -1.019302031176E+00 2.059330149123E+00 -3.334102967762E+00 -1.019302031176E+00 2.059330149122E+00
 7.618276497566E+00 2.939811388843E+00 -3.334102967762E+00 7.618276497566E+00 2.939811388843E+00 -3.334102967762E+00 7.618276497566E+00 2.939811388843E+00 -3.334102967762E+00 7.618276497566E+00 2.939811388843E+00 -3.334102967762E+00 7.618276497566E+00 2.939811388843E+00 -3.334102967762E+00 7.618276497566E+00 2.939811388843E+00 -3.334102967761E+00 7.618276497566E+00
 2.939811388844E+00 4.758261474640E+00 -1.019302031176E+00 2.939811388844E+00 4.758261474640E+00 -1.019302031176E+00 2.939811388844E+00 4.758261474640E+00 -1.019302031176E+00 2.939811388844E+00 4.758261474640E+00 -1.019302031177E+00 2.939811388844E+00 4.758261474640E+00 -1.019302031176E+00 2.939811388844E+00 4.758261474640E+00 -1.019302031176E+00 2.939811388843E+00 4.758261474641E+00
 -3.334102967762E+00 -1.019302031176E+00 2.059330149123E+00 -3.334102967762E+00 -1.019302031176E+00 2.059330149123E+00 -3.334102967762E+00 -1.019302031176E+00 2.059330149123E+00 -3.334102967762E+00 -1.019302031176E+00 2.059330149123E+00 -3.334102967762E+00 -1.019302031176E+00 2.059330149123E+00 -3.334102967762E+00 -1.019302031176E+00 2.059330149122E+00 -3.334102967761E+00 -1.019302031176E+00 2.059330149122E+00
 7.618276497566E+00 2.939811388844E+00 -3.334102967762E+00 7.618276497566E+00 2.939811388844E+00 -3.334102967762E+00 7.618276497567E+00 2.939811388843E+00 -3.334102967762E+00 7.618276497567E+00 2.939811388843E+00 -3.334102967763E+00 7.618276497566E+00 2.939811388844E+00 -3.334102967762E+00 7.618276497566E+00 2.939811388844E+00 -3.334102967762E+00 7.618276497566E+00 2.939811388844E+00 -3.334102967762E+00 7.618276497566E+00
 2.939811388844E+00 4.758261474641E+00 -1.019302031177E+00 2.939811388844E+00 4.758261474640E+00 -1.019302031176E+00 2.939811388844E+00 4.758261474640E+00 -1.019302031176E+00 2.939811388844E+00 4.758261474640E+00 -1.019302031177E+00 2.939811388844E+00 4.758261474640E+00 -1.019302031176E+00 2.939811388844E+00 4.758261474641E+00 -1.019302031176E+00 2.939811388843E+00 4.758261474641E+00 -1.019302031176E+00 2.939811388844E+00 4.758261474641E+00
 -3.334102967762E+00 -1.019302031176E+00 2.059330149123E+00 -3.334102967762E+00 -1.019302031176E+00 2.059330149123E+00 -3.334102967762E+00 -1.019302031176E+00 2.059330149123E+00 -3.334102967762E+00 -1.019302031176E+00 2.059330149123E+00 -3.334102967762E+00 -1.019302031176E+00 2.059330149123E+00 -3.334102967762E+00 -1.019302031176E+00 2.059330149123E+00 -3.334102967762E+00 -1.019302031176E+00 2.059330149123E+00 -3.334102967762E+00 -1.019302031176E+00 2.059330149123E+00
 -1.551448685684E+01 4.338314755268E+00 8.858012733572E+00 -1.551448685684E+01 4.338314755268E+00 8.858012733572E+00 -1.551448685684E+01 4.338314755268E+00 8.858012733572E+00 -1.551448685684E+01 4.338314755268E+00 8.858012733572E+00 -1.551448685684E+01 4.338314755268E+00 8.858012733572E+00 -1.551448685684E+01 4.338314755268E+00 8.858012733571E+00 -1.551448685684E+01 4.338314755268E+00 8.858012733571E+00 -1.551448685684E+01 4.338314755268E+00 8.858012733572E+00 1.939371278087E+03
 -2.726665221319E+00 -1.257088252288E+01 1.213228451912E-01 -2.726665221319E+00 -1.257088252288E+01 1.213228451910E-01 -2.726665221320E+00 -1.257088252288E+01 1.213228451911E-01 -2.726665221320E+00 -1.257088252288E+01 1.213228451915E-01 -2.726665221319E+00 -1.257088252288E+01 1.213228451907E-01 -2.726665221319E+00 -1.257088252288E+01 1.213228451901E-01 -2.726665221319E+00 -1.257088252288E+01 1.213228451901E-01 -2.726665221319E+00 -1.257088252288E+01 1.213228451905E-01 1.354529218721E+01 1.881875495103E+03
 -2.172738280404E+00 2.078394641713E+01 3.244694740744E+00 -2.172738280404E+00 2.078394641713E+01 3.244694740744E+00 -2.172738280403E+00 2.078394641713E+01 3.244694740744E+00 -2.172738280403E+00 2.078394641713E+01 3.244694740744E+00 -2.172738280404E+00 2.078394641713E+01 3.244694740745E+00 -2.172738280404E+00 2.078394641713E+01 3.244694740746E+00 -2.172738280405E+00 2.078394641713E+01 3.244694740746E+00 -2.172738280404E+00 2.078394641713E+01 3.244694740745E+00 6.828313128959E+01 -8.083978534024E+01 1.989560987817E+03
 -1.486001055248E+01 1.573851369145E+00 6.817662124515E+00 -1.486001055248E+01 1.573851369145E+00 6.817662124514E+00 -1.486001055248E+01 1.573851369146E+00 6.817662124515E+00 -1.486001055248E+01 1.573851369145E+00 6.817662124515E+00 -1.486001055248E+01 1.573851369145E+00 6.817662124514E+00 -1.486001055248E+01 1.573851369145E+00 6.817662124514E+00 -1.486001055248E+01 1.573851369145E+00 6.817662124514E+00 -1.486001055248E+01 1.573851369145E+00 6.817662124514E+00 -2.098750175642E+02 -2.851706958543E+02 6.840976000817E+01 3.403865242033E+02
 -5.203848990468E+00 -5.011737450927E+00 3.595353870520E+00 -5.203848990468E+00 -5.011737450927E+00 3.595353870520E+00 -5.203848990468E+00 -5.011737450927E+00 3.595353870520E+00 -5.203848990468E+00 -5.011737450927E+00 3.595353870521E+00 -5.203848990468E+00 -5.011737450927E+00 3.595353870520E+00 -5.203848990468E+00 -5.011737450927E+00 3.595353870519E+00 -5.203848990468E+00 -5.011737450927E+00 3.595353870519E+00 -5.203848990468E+00 -5.011737450928E+00 3.595353870520E+00 -2.562136188452E+02 -9.416529663024E+02 9.671133233990E+01 2.550094296920E+02 9.682900358935E+02
 8.770887500679E+00 -3.108072288639E+00 -1.335000955744E+00 8.770887500679E+00 -3.108072288639E+00 -1.335000955744E+00 8.770887500679E+00 -3.108072288639E+00 -1.335000955744E+00 8.770887500679E+00 -3.108072288639E+00 -1.335000955744E+00 8.770887500679E+00 -3.108072288639E+00 -1.335000955744E+00 8.770887500679E+00 -3.108072288639E+00 -1.335000955744E+00 8.770887500679E+00 -3.108072288639E+00 -1.335000955744E+00 8.770887500679E+00 -3.108072288639E+00 -1.335000955744E+00 -4.638448124454E+00 1.336126321830E+02 -2.300235861808E+02 -5.896985849636E+01 -1.030673637478E+02 2.321764733468E+02
 -9.437514227556E+00 -1.021398511186E+01 4.876813453952E+00 -9.437514227555E+00 -1.021398511186E+01 4.876813453952E+00 -9.437514227557E+00 -1.021398511186E+01 4.876813453952E+00 -9.437514227557E+00 -1.021398511186E+01 4.876813453953E+00 -9.437514227555E+00 -1.021398511186E+01 4.876813453951E+00 -9.437514227556E+00 -1.021398511186E+01 4.876813453949E+00 -9.437514227554E+00 -1.021398511186E+01 4.876813453949E+00 -9.437514227556E+00 -1.021398511186E+01 4.876813453950E+00 -3.073109517690E+02 1.465529651697E+02 -3.243527212345E+02 -1.195083187380E+01 1.505023426794E+01 5.804456617221E+00 3.680027653584E+02
 -7.690326206100E+00 -4.081680284008E+00 -8.971820312562E-01 -7.690326206100E+00 -4.081680284008E+00 -8.971820312559E-01 -7.690326206099E+00 -4.081680284008E+00 -8.971820312560E-01 -7.690326206099E+00 -4.081680284008E+00 -8.971820312563E-01 -7.690326206100E+00 -4.081680284008E+00 -8.971820312558E-01 -7.690326206099E+00 -4.081680284008E+00 -8.971820312552E-01 -7.690326206100E+00 -4.081680284007E+00 -8.971820312552E-01 -7.690326206099E+00 -4.081680284007E+00 -8.971820312554E-01 1.379181832830E+02 -2.807324761698E+02 2.735572189996E+02 3.043140054542E+01 -3.797908901079E+00 -6.479073002726E+00 -1.090774014908E+02 3.346120882540E+02
 6.740461826167E+00 -4.231650592629E+00 -7.353118262813E+00 6.740461826167E+00 -4.231650592629E+00 -7.353118262813E+00 6.740461826167E+00 -4.231650592630E+00 -7.353118262813E+00 6.740461826167E+00 -4.231650592629E+00 -7.353118262813E+00 6.740461826166E+00 -4.231650592629E+00 -7.353118262812E+00 6.740461826167E+00 -4.231650592629E+00 -7.353118262811E+00 6.740461826166E+00 -4.231650592629E+00 -7.353118262811E+00 6.740461826167E+00 -4.231650592629E+00 -7.353118262812E+00 -3.231505498201E+02 2.848703950846E+02 -8.415509405749E+02 -5.497423011541E+00 -7.305046661784E+00 1.948710742249E+01 2.790476586539E+02 -2.590423855103E+02 8.408845542604E+02
 -1.079350732765E+01 -9.568635585272E+00 2.685066792382E+00 -1.079350732765E+01 -9.568635585272E+00 2.685066792382E+00 -1.079350732765E+01 -9.568635585272E+00 2.685066792382E+00 -1.079350732765E+01 -9.568635585272E+00 2.685066792382E+00 -1.079350732765E+01 -9.568635585272E+00 2.685066792382E+00 -1.079350732765E+01 -9.568635585272E+00 2.685066792382E+00 -1.079350732765E+01 -9.568635585272E+00 2.685066792382E+00 -1.079350732765E+01 -9.568635585272E+00 2.685066792382E+00 -2.511008367729E+02 1.741080816868E+02 1.942020723254E+02 -1.688891225095E+01 1.900749954541E+01 -1.214929154009E+01 1.026665002877E+01 -7.675896846706E+00 -7.194375681736E+00 3.222264526448E+02
 -4.467215395098E+00 -5.344994036828E+00 4.658068714536E+00 -4.467215395098E+00 -5.344994036827E+00 4.658068714536E+00 -4.467215395098E+00 -5.344994036827E+00 4.658068714536E+00 -4.467215395098E+00 -5.344994036827E+00 4.658068714537E+00 -4.467215395097E+00 -5.344994036827E+00 4.658068714536E+00 -4.467215395098E+00 -5.344994036828E+00 4.658068714535E+00 -4.467215395097E+00 -5.344994036828E+00 4.658068714535E+00 -4.467215395098E+00 -5.344994036828E+00 4.658068714535E+00 1.616185765256E+02 -4.303614193843E+02 -3.838238847967E+02 2.013166446159E+01 1.478352266142E+01 -2.083301693178E+01 -1.550794903928E+01 1.191882909963E+01 9.501527566630E+00 -1.369906617645E+02 4.718147847457E+02
 6.093463451175E+00 -4.165321334198E+00 -8.666402771909E+00 6.093463451174E+00 -4.165321334198E+00 -8.666402771909E+00 6.093463451175E+00 -4.165321334199E+00 -8.666402771909E+00 6.093463451175E+00 -4.165321334199E+00 -8.666402771910E+00 6.093463451175E+00 -4.165321334198E+00 -8.666402771908E+00 6.093463451175E+00 -4.165321334198E+00 -8.666402771907E+00 6.093463451174E+00 -4.165321334197E+00 -8.666402771907E+00 6.093463451175E+00 -4.165321334197E+00 -8.666402771908E+00 1.784870600170E+02 -3.552200924424E+02 -7.428816331659E+02 -2.790123906142E+01 -6.576991335528E+00 1.040370660648E+01 7.273138202161E-01 1.329692714001E+01 2.496162138718E+01 -2.041430703129E+02 3.511529124763E+02 7.709364498411E+02
 -1.034069301600E+01 -9.648036538028E+00 3.435268637678E+00 -1.034069301600E+01 -9.648036538027E+00 3.435268637678E+00 -1.034069301600E+01 -9.648036538027E+00 3.435268637678E+00 -1.034069301600E+01 -9.648036538027E+00 3.435268637678E+00 -1.034069301600E+01 -9.648036538027E+00 3.435268637677E+00 -1.034069301600E+01 -9.648036538027E+00 3.435268637677E+00 -1.034069301600E+01 -9.648036538028E+00 3.435268637677E+00 -1.034069301600E+01 -9.648036538028E+00 3.435268637677E+00 -1.046968577126E+03 -2.722232141890E+01 1.083966385463E+01 1.720832190548E+01 8.777247263593E+00 -2.139584617521E-01 1.649248207607E+01 9.926324157956E+00 2.870995250220E+00 2.184470497151E+01 6.486092977358E+00 4.082227927739E+00 1.074148612301E+03
 -3.430435297764E+00 -1.105679750248E+01 6.768528504193E-01 -3.430435297763E+00 -1.105679750248E+01 6.768528504190E-01 -3.430435297764E+00 -1.105679750248E+01 6.768528504191E-01 -3.430435297764E+00 -1.105679750248E+01 6.768528504196E-01 -3.430435297763E+00 -1.105679750248E+01 6.768528504186E-01 -3.430435297763E+00 -1.105679750248E+01 6.768528504177E-01 -3.430435297763E+00 -1.105679750248E+01 6.768528504177E-01 -3.430435297764E+00 -1.105679750248E+01 6.768528504183E-01 -9.157495119275E+01 -1.285615730632E+02 -7.187645253950E+01 -3.299260979791E+01 2.471216255998E+00 2.163139980843E+01 4.469403198737E+01 -2.934709001075E+01 5.828714261838E+00 2.810006206118E+01 -2.539576482788E+01 3.066981483519E+01 7.921694932421E+01 2.692875916657E+02
 7.240749244480E+00 -1.124485952251E+00 -2.364813943263E+00 7.240749244480E+00 -1.124485952250E+00 -2.364813943263E+00 7.240749244479E+00 -1.124485952250E+00 -2.364813943263E+00 7.240749244479E+00 -1.124485952250E+00 -2.364813943263E+00 7.240749244480E+00 -1.124485952250E+00 -2.364813943264E+00 7.240749244480E+00 -1.124485952251E+00 -2.364813943264E+00 7.240749244480E+00 -1.124485952251E+00 -2.364813943264E+00 7.240749244480E+00 -1.124485952251E+00 -2.364813943264E+00 1.015470476946E+01 1.660626775345E+01 -2.010623858219E+02 -3.058253643497E+01 -8.524761558906E+00 -2.136369354908E+01 -2.412154883607E-01 -1.415523137652E+01 1.504260360733E+01 7.804130870282E+00 6.737911969294E+00 5.911077506383E+00 -4.506107767225E+01 8.331700830692E+00 2.203909098034E+02

