#BIOSYM hessian 1
@Type: Hessian Complete
@Units
 distance: 	A
 energy: 	Kcal/Mol
#header
@natom 13

#label
M1      M2      C3      C4      C5      C6      C7      C8      C9      H10     H11     H12     H13

#element
Mo Mo C  C  C  C  C  C  C  H  H  H  H 

#matrix
39
 7.650957883938E+02
 -4.276514768513E+01 4.436356563150E+02
 -6.676825101300E+00 3.362260755490E+01 5.492773215342E+02
 -3.441106606882E+02 7.192152483682E+01 -1.295910442612E+02 8.502013313819E+02
 3.160646227893E+01 5.808177908948E+01 1.348289100261E+01 9.826502387432E+00 6.616674068881E+02
 -9.474840803592E+01 -1.412433320467E+01 1.947894705244E+01 7.268632561782E+01 -4.611336393756E+01 6.581095034600E+02
 -2.582477677325E+02 -1.179106898781E+02 2.192813584123E+01 -1.300350679201E+02 1.117202964485E+02 -1.127789841982E+01 3.365113352601E+02
 -1.269107682162E+02 -1.787416510308E+02 -5.380495620463E+00 1.162481501200E+02 -3.233149364341E+02 7.059477586989E+01 8.557903377339E+00 6.077235182240E+02
 -5.338815882617E+00 1.324491314459E+01 -1.024182080745E+02 -4.317135706567E+01 5.750717012298E+01 -7.008985721774E+01 3.632747688607E+01 -1.235007046109E+02 1.225431350424E+02
 -4.347347914389E+01 4.088143641490E+01 3.602440244824E+00 -2.369097026960E+02 -2.037883724183E+02 4.730498988341E+01 4.350927666067E+01 3.868540721659E+00 2.795489148291E+01 2.444105429370E+02
 8.492672346765E+01 -2.469867877008E+02 9.581628325475E+01 -1.679674948189E+02 -1.419854442607E+02 1.854395400857E+01 -2.507450787934E+01 -9.635952037556E+01 5.716460077227E+01 1.366908290678E+02 4.845706489522E+02
 -6.217468452898E+01 1.034330312614E+02 -1.323900291295E+02 5.317102083708E+01 2.216258436661E+01 -4.473552367908E+01 1.120126148249E+01 2.876770239205E+01 2.097493592263E+01 -3.078300735072E+01 -1.781752771738E+02 1.632474325714E+02
 -9.786424854563E+01 2.323897480070E+01 5.448258807153E+01 3.223754056768E+01 1.107717462856E+01 2.849112595960E+01 8.550620627447E+00 -2.242409110890E+01 -5.111834976934E+01 2.082597567676E+01 -7.371655462182E+00 -4.341118362174E+01 9.021612869330E+02
 4.832502303756E+01 -9.657184054550E+01 -7.079656406306E+01 -1.399212328355E+01 2.510587972503E+01 -2.257630058165E+01 -1.565595152818E+01 1.883375143313E+00 1.017568223419E+00 -2.846003421967E+01 1.475933297413E+01 2.840815863198E+01 -3.117224232189E+02 2.379111928485E+02
 1.403009442106E+02 -1.042043865173E+02 -2.420561419391E+02 -8.943889121633E+00 -2.388142538351E+01 -1.316004109777E+01 -5.034419345579E+01 1.740437171387E+01 1.375470563706E+01 -9.069589384775E+01 1.737115117013E+01 -1.887498300175E+01 -3.566450015279E+02 1.949872251945E+02 4.296150182646E+02
 5.045203417535E+01 1.307135961254E+01 1.175213988858E+02 -6.477031261176E+01 -1.614641672285E+00 1.299455461175E+01 -1.172242626902E+00 2.659990785486E+01 4.629162324646E+01 -5.546318233396E+01 9.092905388661E+00 2.692992846729E+01 -6.883274254402E+02 2.348039795963E+02 2.280544950596E+02 1.777273544427E+03
 -1.368602370346E+01 -1.388461869090E+01 -4.162690989811E+01 2.626210030216E+01 -2.128075539696E+00 -8.661990679647E-01 1.431189202497E+01 -8.152814419866E+00 -6.146416824525E+00 -2.606664249928E-01 3.072144010355E+00 -2.708107353814E+01 2.766930124694E+02 -1.632263686179E+02 -8.439693142356E+01 -3.858884915725E+02 2.311849570902E+02
 -1.694281343416E+01 -1.892781094905E+01 -6.479025614224E+01 -1.082323074193E+01 -9.804374031990E+00 6.478846346534E+00 7.444875109177E+00 -1.638080922708E+01 -7.175861532384E+00 2.101017322788E+01 6.149890136012E+00 1.416270769449E+00 3.671737850896E+02 -1.094285831208E+02 -1.412140329837E+02 6.495535048018E+01 7.075124295027E+01 3.534339810792E+02
 -8.332076507408E+01 1.808698946340E+01 -5.858053541480E+01 4.118714384692E+01 -2.273024671014E+01 -5.692455013159E+01 -6.210617065884E+00 -2.452734927781E+01 -3.539831004211E+01 4.416147492411E+01 -8.036794611966E-01 -1.624540610024E+01 -1.897979297693E+02 9.501876612038E+01 1.616834900426E+02 -9.220352391354E+02 7.866854444285E+01 -3.969725007818E+02 1.557852021090E+03
 1.058250784741E+01 4.690258994128E+00 -1.442544690214E+01 -1.190186202214E+01 3.717227587358E+00 -2.006985817447E+01 -6.186247864321E+00 5.617801224647E-01 -1.373072858356E+01 1.738448420455E+01 5.527607168289E-01 2.743339056947E+01 2.267148052063E+01 3.560536422366E+00 -2.365246693113E+01 1.285644566322E+02 -7.938847228029E+01 8.905150494321E+01 -7.962684228638E+01 1.500031356595E+02
 -1.740353139658E+01 1.080255893647E+00 -4.064424285302E+01 4.260078162218E+01 -1.083135380912E+01 -9.783304476340E+01 -5.816620296708E+00 -8.974028501957E+00 -1.316653955152E+01 2.178869919137E+01 -3.760419896335E+00 -1.527775272416E+01 -7.139755899264E+01 1.335544287950E+01 4.383912920964E+01 -2.282885514369E+02 5.894937868627E+01 -8.326552821720E+01 7.922835822284E+02 3.305270436524E+01 7.712229339417E+02
 2.574412872136E+01 -1.712062457384E+01 1.219009085442E+01 -5.243518299218E+01 3.948796625473E+01 9.188258993213E+01 -5.539091504657E+00 1.752773029282E+01 9.911486476560E+00 -4.903974090776E+01 1.051231334268E+01 1.500526583588E+01 1.007641275105E+01 -7.999988714432E+00 -3.587129663704E+01 -1.018458399541E+02 4.970308738065E+00 -3.572166413733E+01 -4.392584995451E+02 -8.025909701934E+01 -5.249848129298E+02 5.999156260433E+02
 1.485484904002E+01 1.774940599531E+01 5.157251325686E+00 2.104076077743E+01 -1.185269785825E+02 -9.827471553379E+01 1.224381514016E+01 -1.732902326306E+00 6.812508333909E+00 -1.649262744851E-01 3.030128145592E+00 -4.389313360115E+00 1.708947681276E+01 -1.888243381510E+01 -1.725087375460E+01 -5.699984256125E+01 2.380641305962E+01 -1.013910042127E+01 -4.213474165022E+01 -6.375050354222E+01 -5.697922677693E+01 3.471765303294E+01 1.279765146313E+02
 4.014783941613E+01 -2.162859073604E+01 5.928382496979E+00 1.106440180567E+01 -9.269495267204E+01 -2.666239945106E+02 4.157783536807E+01 2.729798744262E+00 3.821673425045E+01 1.500280090514E+01 -4.593734547476E-01 2.392288103674E+01 6.943933958890E+01 -3.087426580899E+01 -6.371498613121E+01 -2.591399606154E+02 2.571763071598E+01 -6.223742822036E+01 -3.963784524751E+02 -7.814390634484E+01 -5.782135355545E+02 4.779529261673E+02 1.741962067173E+02 9.196671129550E+02
 6.589151996827E+00 -8.028279396707E+00 4.107695023893E+00 -7.138865162931E+01 3.957435087268E+01 -7.741551931330E+01 3.643055580762E+00 7.027573540346E+00 4.503596512272E+00 -2.191088132610E+01 -2.168858939093E+00 -9.233462461583E+00 -5.625083974539E-01 -2.672433083572E+00 7.056984645680E-01 -3.922040922792E-01 2.743691990211E+00 5.039102713971E+00 6.876596532962E+00 -1.845112695802E+00 -1.433749369190E+00 4.911374485090E-01 -1.391509419815E+00 -6.241148594279E+00 6.343830886068E+02
 6.435037804874E+00 4.158114061610E+00 -7.211659049163E+00 -1.165239982786E-02 -1.682634545703E+01 -6.702370747076E+00 7.247736671706E+00 8.431239550365E+00 6.768587749943E+00 8.247210062701E+00 2.333841234731E-01 -1.039410870981E+01 -6.831163377864E+00 -2.700051512010E+00 1.562973362857E+01 2.355639065370E+01 6.083280985074E+00 3.987361587211E+00 -1.238420414962E+01 -1.464073619319E+01 -2.111885426473E+01 -6.816765941539E+00 1.631918595876E+01 1.502464915482E+01 -8.969770894327E+01 1.039876406763E+03
 1.102199379284E+01 1.066581130195E+01 -4.544660017434E+00 -4.794772057198E+01 -7.474062129899E+00 -1.236265841417E+02 -2.541892592809E+01 2.502946687231E+01 -3.291354782115E+00 1.982364520696E+00 -1.568816369117E+01 2.511988501328E+01 -4.132624436986E+00 1.874635843442E+00 1.190393480480E+00 2.543024220100E+00 -1.101319847181E+00 -7.047573091973E+00 -5.139996810556E+00 1.031797596286E+00 5.443855544526E+00 -6.156836758987E+00 4.441469053575E+00 -3.937390718719E+00 -1.730339918767E+02 3.947468924147E+01 1.040340822121E+03
 2.764867986051E+00 -1.664388456165E-01 -1.512066941109E+00 -5.178113603070E+01 -3.460538664229E+00 -1.779948890611E+01 3.961591856822E+00 1.400304740838E+00 3.830278274148E+00 3.663951470838E+00 2.341067963470E+00 -6.365739638591E+00 -1.295881311613E+00 -8.195334475006E-01 2.104490634275E+00 3.426421782041E+00 1.125184858367E+00 2.588569417504E+00 7.254739315832E-02 -2.491316695864E+00 -4.632221079601E+00 9.129767307347E-01 2.017713868250E+00 1.251008368045E+00 -3.242512179644E+02 -2.577210568518E+02 1.887249566256E+02 3.396805639287E+02
 -2.536525766350E+00 3.600479504468E+00 -2.289192375775E+00 -1.060698909128E+01 3.835432220226E+00 -5.569454969593E+00 -8.483843413049E-01 -1.190897670857E+00 -1.408931998403E+00 1.114983406402E+01 -7.480504562498E-01 4.878265983656E+00 -2.998252109525E-01 7.855286076187E-01 1.122159716104E+00 1.912898290953E+00 -6.674920382097E-01 -1.383666458392E+00 -3.407878780392E+00 1.723770878365E-01 -2.122641487853E-01 2.983798652046E+00 4.052009997794E-01 2.192219759901E+00 -2.050315378249E+02 -2.726527669137E+02 1.327276125976E+02 2.401014518680E+02 3.025462703968E+02
 1.968639338206E+00 -2.225608367100E+00 5.289517267961E-01 -1.699664976221E+01 2.138719558769E+00 -4.433233944081E+00 3.572244843347E+00 1.529545540851E+00 3.139705520895E+00 -7.722964112758E+00 1.078463216750E+00 -7.689183357488E+00 -1.444561451723E+00 -1.121655525727E+00 2.594731744336E+00 3.919351907447E+00 1.669206275325E+00 2.997523834535E+00 1.385459135289E+00 -3.163962680152E+00 -5.341728982574E+00 -1.847017415004E+00 1.818782753883E+00 1.142047225425E+00 1.309453556355E+02 1.071918265443E+02 -1.571522751019E+02 -1.692548609153E+02 -1.499841444886E+02 1.775287930680E+02
 3.227882815745E+00 5.413660143049E+00 -3.164130743611E+00 -6.214930694666E+00 -1.258784104084E+01 -2.613958204051E+01 -6.480414938819E+00 6.802760653284E+00 7.926432940520E-01 4.679166805830E+00 -2.344093105733E+00 4.249428541029E+00 -1.992560370545E+00 -1.399968613920E-01 2.722740078982E+00 4.942466225015E+00 8.393089145160E-01 -1.500750668200E+00 -5.211143674889E+00 -2.446275688838E+00 -3.355499002320E+00 1.959507890264E+00 4.214751447311E+00 5.348787647855E+00 -6.989591198599E+01 1.221177104063E+01 4.793528387601E+01 -3.739524006259E+00 1.028184231916E+01 4.159284903708E+01 7.981490529706E+01
 1.592737401455E+00 -2.020122777830E-01 -7.000963492662E-01 -7.761394623729E+00 -2.150091852831E-01 2.799993248994E+00 8.177407706040E-01 2.639156518679E-01 1.326020691937E-01 5.598193821091E-01 2.691816402515E-01 -5.120333385846E-01 -2.221238717164E-01 1.027988157881E-01 1.035214886620E+00 1.175043684553E+00 -1.995473470502E-01 -4.844149101468E-01 -1.737440039701E+00 -3.138304992069E-01 -1.087986812763E+00 1.632064250874E+00 1.285573419458E+00 1.061600849691E+00 2.084418255149E+01 -1.384381288305E+02 -1.425816773923E+02 -3.079314717942E+00 9.776251413175E+00 4.311992964719E+01 -2.208902859270E+01 1.389901612723E+02
 3.581992523972E-01 1.007204310111E+00 3.052032416422E-01 -7.281069257749E-01 -2.833101750427E+00 -1.465961532176E+01 -6.757831688564E-01 1.073197228366E+00 5.922556297065E-01 2.401626829883E-01 -2.257092255097E-01 6.869313783071E-01 3.817281366648E-01 -1.409492209933E-01 -1.658226129334E-01 -2.873324938294E-01 9.277102939782E-02 1.434701728791E-01 -6.728140477464E-01 -1.275041442690E-01 -4.766839910303E-01 -4.526509163856E-02 2.714224863723E-01 1.095773753032E-01 8.841291981996E+01 -1.512998572884E+02 -6.466971542729E+02 -1.152467159887E+00 -9.447463266112E+00 -2.369353043629E+01 -8.628966209942E+01 1.589082021221E+02 6.843535089297E+02
 4.431273203725E-01 -1.775814529518E+00 2.541847775887E+00 -5.116075778217E+00 7.918870084862E+00 5.794099793195E+00 -3.809438405213E-03 -1.704387559420E+00 4.641352527543E-01 -5.915945801009E+00 1.483328089611E+00 -3.831006549137E+00 1.680354484776E+00 1.621252168342E-01 -5.121621872367E+00 -7.785651782985E+00 -1.550721536692E+00 -4.147806169454E-01 6.250111978762E+00 4.105454177773E+00 6.107650186637E+00 -1.828530434508E-01 -6.090731798425E+00 -5.464415307684E+00 -1.718835414784E+02 2.728019512442E+02 3.213967161336E+01 1.518251676403E+01 -4.463507775172E+01 3.110406457867E+00 -1.317001286301E+00 5.298536673597E+00 -7.305718565080E-01 1.825300254825E+02
 5.265988383695E-01 -1.140310569682E+00 1.296329480837E+00 7.069869510874E-01 -8.952180252280E-01 3.746638692692E+00 2.829068227410E-01 -5.258145422272E-01 -1.057119157450E-01 -6.048043679825E-01 9.579617165996E-03 5.811074202560E-01 1.047931688355E+00 2.343925042273E-01 -2.468852213504E+00 -4.071113210973E+00 -8.256397531796E-01 -7.114686433285E-03 3.136288230561E+00 2.371039280335E+00 3.133879320981E+00 -6.714695400740E-01 -1.986566107172E+00 -5.081790832571E+00 2.311822120537E+02 -6.162353722136E+02 -4.406775153511E+01 1.804245264675E+01 -4.347566396886E+01 -7.983014305068E-01 4.041534042179E+00 -1.132025041150E+01 3.129229565281E+00 -2.483264215330E+02 6.693324451287E+02
 -3.321214056673E+00 1.513131343017E-01 1.413357669492E+00 -2.589129629034E+00 1.210813190755E+01 -6.380809328749E-02 8.858064715210E-01 -2.867162611462E+00 -2.509747655207E-02 -5.134898885631E-01 -3.054833474074E-01 -2.526554001105E-02 1.168209103885E+00 -1.941693163604E-01 -1.653576373633E+00 -2.130484449275E+00 -4.389257338962E-01 -7.725317001185E-02 6.907408167122E-01 1.622764739473E+00 1.235882656731E+00 2.838311717658E+00 -2.696466158216E+00 -1.387643960256E+00 2.598882911774E+01 -2.304822277467E+01 -8.684331915470E+01 -1.015758740177E+01 3.081919701557E+01 1.934186329100E+00 2.619016914169E+01 -6.252005493734E+01 -2.126562968564E-01 -2.969277969184E+01 4.325185946255E+01 8.745148479186E+01
 -2.728936018506E+01 1.458936479587E+01 -1.748364164539E+01 3.910108417199E+01 -7.217149122159E+00 2.553500175714E+01 1.133823320162E+01 -1.297814041392E+01 5.081174599887E+00 5.158607037589E+01 -3.854978000514E+01 6.139587845972E+01 4.119795592945E+00 3.492022552225E+00 1.211362198055E+01 6.134428297779E+00 -4.100244210542E+00 -4.699670547835E+00 -1.006341584355E+01 1.401313121593E+00 -5.350356240139E+00 8.447989875118E+00 5.240778864836E-01 4.283545423217E+00 8.556110700442E+00 4.316805181764E+01 -2.243686393179E+01 1.139156533930E+01 7.465939062712E-01 1.101549533909E+01 3.337180085283E-01 2.917133479954E+00 1.050172534476E+00 -1.393604610937E+01 -5.127392051127E+00 -9.311724012349E+00 -8.993759152050E+01
 -1.362064701788E+01 6.018464511032E+00 -7.946488513300E+00 -3.274761316591E+01 -1.484307339366E+02 1.185669776857E+02 1.033618283759E+01 -9.211446148447E+00 2.471261123084E+00 1.465787866601E+01 -2.085807579743E+01 5.127504093433E+00 -3.674931616829E+00 -2.675402204682E+00 8.598798819042E+00 1.117162629255E+01 4.161251246179E+00 -2.541903797040E+00 -7.161408074906E+00 -7.306838988140E+00 -5.780374610705E+00 -2.634674826438E-01 1.408046864186E+01 6.467362010165E+00 9.682359960717E+00 -1.328026249215E+01 -4.279679963659E+00 2.820496990998E+00 -2.514341389755E+00 -1.004067125542E+00 -4.108871468107E+00 -1.837493818991E-02 -4.137162150381E-01 1.229199333176E+01 4.484885447164E+00 4.139627081114E+00 6.406018847611E-01 1.755332075552E+02
 1.418926172102E+01 -2.828620058186E+00 1.184561678451E+01 8.037326812919E+01 8.532699460596E+01 -4.828115847475E+01 -2.950348421579E+01 9.990924471540E+00 -3.465804652613E+00 -9.845997748682E+00 3.770503703878E+00 -1.709883234531E+01 5.709003661760E+00 -4.222874514498E+00 -1.082485535537E+01 -1.371487459726E+01 4.255086677484E+00 3.158472607156E-01 1.217681384115E+01 8.420539510138E-01 1.287657406350E+01 -5.797405041223E+00 -2.675794352753E+00 -1.281310209713E+01 7.983910643516E+00 3.180231222988E+01 -3.879616103611E+01 1.224779264202E+01 -1.568536263352E+00 8.522385966325E+00 -8.276845252647E+00 7.716913828232E-01 -4.589252855236E-01 -4.931542100176E+00 -2.397537285712E+00 -1.707020553612E+00 -6.079107409174E+01 -1.232744911950E+02 9.965860607680E+01
 
#dipoles
 0.20732615558E+02  0.23004196839E+01 -0.33612074749E+01
 0.82712912886E+00  0.18592897823E+02  0.74731022819E+00
 0.10147565181E+02 -0.29470756258E+01  0.15309740885E+02
 0.19563076568E+02  0.18074125828E+01  0.42181875111E+01
 0.38578060744E+01  0.91223590455E+01 -0.29294483325E+01
-0.85195444231E+01  0.20816825632E+01  0.76723029031E+01
-0.12823367654E+02 -0.20590209124E+01 -0.45429387796E+01
 0.58289033496E+01 -0.13687910963E+02  0.21572073150E+01
 0.10307365734E+01 -0.24347949323E+01 -0.30861096502E+01
-0.10803300806E+02 -0.64714591931E+01  0.77718210553E+01
 0.47795097635E+00 -0.11149942219E+02  0.54757346433E+01
-0.77748382269E+01  0.34664782842E+01 -0.15020984412E+02
-0.51659330848E+01 -0.70031198938E+01 -0.17261957364E+02
-0.36586805695E+00 -0.24678429775E+01  0.70150993798E+01
-0.24017140238E+01  0.38689874497E+01  0.80971325662E+01
-0.25867442667E+01  0.26920009917E+01  0.69054186173E+01
-0.70347986313E-01 -0.27892390509E+01 -0.87544393744E+01
-0.84119841314E+01 -0.38295654729E+01 -0.18818983822E+02
 0.10565881634E+02  0.71281306426E+00  0.12515284381E+01
 0.22604891071E+01 -0.41790957331E+00  0.15478982620E+01
 0.13504830615E+02  0.14344397752E+00  0.86387759111E+01
-0.11126160083E+02  0.20562494337E+01  0.91648607909E+01
 0.98852433880E+00 -0.62285518357E+01 -0.17213026915E+01
-0.34038797969E+01 -0.58581486317E+00 -0.55505786535E+01
-0.12549308938E+02  0.30858076200E+01 -0.76713076120E+01
-0.63971284776E+01  0.29478768664E+00 -0.84146992729E+01
 0.16732814624E+01  0.21982333380E+01  0.20342747841E+01
-0.32409525272E+01 -0.13973104107E+01 -0.35619041625E+01
 0.12958642733E+01 -0.33556645174E-01  0.35103759409E+01
-0.41836167958E+01  0.33705156372E+01 -0.39016207902E+01
 0.76669649505E+00  0.13232159985E+01 -0.18570895004E+01
-0.31357615290E+00  0.26468748703E+01 -0.98228968533E+00
-0.12524345285E+01 -0.47442520469E+00 -0.25159831407E+01
 0.12768676723E+01  0.10221717495E+01 -0.73782053475E+00
 0.33218465301E+00 -0.77109705870E+00  0.79520469844E+00
-0.12606707186E+00  0.22063067760E+00  0.18590894721E+01
 0.11804626216E+02 -0.84596767265E+00  0.80283573275E+01
-0.39702098030E+00  0.52859783327E+01 -0.17305435621E+01
 0.10017496601E+02 -0.51721442644E+01  0.15098421500E+02
